#
10850 atoms
5 atom types
0.0 265.680000 xlo xhi
0.0 230.085629 ylo yhi
0.0 1.78 zlo zhi
132.840000 0.0 0.0 xy xz yz

Atoms # atomic

1 4 124.255 58.150  0.890
2 4 123.006 59.034  0.890
3 4 121.757 58.150  0.890
4 4 120.507 59.034  0.890
5 4 119.258 58.150  0.890
6 4 118.009 59.034  0.890
7 4 116.760 58.151  0.890
8 4 115.510 59.034  0.890
9 4 114.262 58.151  0.890
10 4 113.012 59.033  0.890
11 4 111.763 58.151  0.890
12 4 110.513 59.033  0.890
13 4 109.265 58.151  0.890
14 4 108.015 59.033  0.890
15 4 106.766 58.151  0.890
16 4 105.517 59.034  0.890
17 4 104.268 58.151  0.890
18 4 103.018 59.034  0.890
19 4 101.769 58.150  0.890
20 4 100.520 59.034  0.890
21 5 124.255 57.521  1.780
22 5 124.255 57.521  0.000
23 5 125.145 58.780  0.890
24 5 123.006 59.663  1.780
25 5 123.006 59.663  0.000
26 5 121.757 57.521  0.000
27 5 121.757 57.521  1.780
28 5 120.508 59.663  1.780
29 5 120.508 59.663  0.000
30 5 119.258 57.521  0.000
31 5 119.258 57.521  1.780
32 5 118.009 59.664  1.780
33 5 118.009 59.664  0.000
34 5 116.760 57.521  0.000
35 5 116.760 57.521  1.780
36 5 115.511 59.664  1.780
37 5 115.511 59.664  0.000
38 5 114.261 57.521  0.000
39 5 114.261 57.521  1.780
40 5 113.012 59.663  1.780
41 5 113.012 59.663  0.000
42 5 111.763 57.521  0.000
43 5 111.763 57.521  1.780
44 5 110.514 59.663  1.780
45 5 110.514 59.663  0.000
46 5 109.264 57.521  0.000
47 5 109.264 57.521  1.780
48 5 108.015 59.663  1.780
49 5 108.015 59.663  0.000
50 5 106.766 57.521  0.000
51 5 106.766 57.521  1.780
52 5 105.517 59.663  1.780
53 5 105.517 59.663  0.000
54 5 104.267 57.522  0.000
55 5 104.267 57.522  1.780
56 5 103.018 59.663  1.780
57 5 103.018 59.663  0.000
58 5 101.769 57.521  0.000
59 5 101.769 57.521  1.780
60 5 100.520 59.663  0.000
61 5 99.630 58.404  0.890
62 5 100.520 59.663  1.780
63 4 151.765 58.150  0.890
64 4 150.516 59.034  0.890
65 4 149.267 58.150  0.890
66 4 148.017 59.034  0.890
67 4 146.768 58.150  0.890
68 4 145.519 59.034  0.890
69 4 144.270 58.151  0.890
70 4 143.020 59.034  0.890
71 4 141.772 58.151  0.890
72 4 140.522 59.033  0.890
73 4 139.273 58.151  0.890
74 4 138.023 59.033  0.890
75 4 136.775 58.151  0.890
76 4 135.525 59.033  0.890
77 4 134.276 58.151  0.890
78 4 133.027 59.034  0.890
79 4 131.778 58.151  0.890
80 4 130.528 59.034  0.890
81 4 129.279 58.150  0.890
82 4 128.030 59.034  0.890
83 5 151.765 57.521  1.780
84 5 151.765 57.521  0.000
85 5 152.655 58.780  0.890
86 5 150.516 59.663  1.780
87 5 150.516 59.663  0.000
88 5 149.267 57.521  0.000
89 5 149.267 57.521  1.780
90 5 148.018 59.663  1.780
91 5 148.018 59.663  0.000
92 5 146.768 57.521  0.000
93 5 146.768 57.521  1.780
94 5 145.519 59.664  1.780
95 5 145.519 59.664  0.000
96 5 144.270 57.521  0.000
97 5 144.270 57.521  1.780
98 5 143.021 59.664  1.780
99 5 143.021 59.664  0.000
100 5 141.771 57.521  0.000
101 5 141.771 57.521  1.780
102 5 140.522 59.663  1.780
103 5 140.522 59.663  0.000
104 5 139.273 57.521  0.000
105 5 139.273 57.521  1.780
106 5 138.024 59.663  1.780
107 5 138.024 59.663  0.000
108 5 136.774 57.521  0.000
109 5 136.774 57.521  1.780
110 5 135.525 59.663  1.780
111 5 135.525 59.663  0.000
112 5 134.276 57.521  0.000
113 5 134.276 57.521  1.780
114 5 133.027 59.663  1.780
115 5 133.027 59.663  0.000
116 5 131.777 57.522  0.000
117 5 131.777 57.522  1.780
118 5 130.528 59.663  1.780
119 5 130.528 59.663  0.000
120 5 129.279 57.521  0.000
121 5 129.279 57.521  1.780
122 5 128.030 59.663  0.000
123 5 127.140 58.404  0.890
124 5 128.030 59.663  1.780
125 4 179.275 58.150  0.890
126 4 178.026 59.034  0.890
127 4 176.777 58.150  0.890
128 4 175.527 59.034  0.890
129 4 174.278 58.150  0.890
130 4 173.029 59.034  0.890
131 4 171.780 58.151  0.890
132 4 170.530 59.034  0.890
133 4 169.282 58.151  0.890
134 4 168.032 59.033  0.890
135 4 166.783 58.151  0.890
136 4 165.533 59.033  0.890
137 4 164.285 58.151  0.890
138 4 163.035 59.033  0.890
139 4 161.786 58.151  0.890
140 4 160.537 59.034  0.890
141 4 159.288 58.151  0.890
142 4 158.038 59.034  0.890
143 4 156.789 58.150  0.890
144 4 155.540 59.034  0.890
145 5 179.275 57.521  1.780
146 5 179.275 57.521  0.000
147 5 180.165 58.780  0.890
148 5 178.026 59.663  1.780
149 5 178.026 59.663  0.000
150 5 176.777 57.521  0.000
151 5 176.777 57.521  1.780
152 5 175.528 59.663  1.780
153 5 175.528 59.663  0.000
154 5 174.278 57.521  0.000
155 5 174.278 57.521  1.780
156 5 173.029 59.664  1.780
157 5 173.029 59.664  0.000
158 5 171.780 57.521  0.000
159 5 171.780 57.521  1.780
160 5 170.531 59.664  1.780
161 5 170.531 59.664  0.000
162 5 169.281 57.521  0.000
163 5 169.281 57.521  1.780
164 5 168.032 59.663  1.780
165 5 168.032 59.663  0.000
166 5 166.783 57.521  0.000
167 5 166.783 57.521  1.780
168 5 165.534 59.663  1.780
169 5 165.534 59.663  0.000
170 5 164.284 57.521  0.000
171 5 164.284 57.521  1.780
172 5 163.035 59.663  1.780
173 5 163.035 59.663  0.000
174 5 161.786 57.521  0.000
175 5 161.786 57.521  1.780
176 5 160.537 59.663  1.780
177 5 160.537 59.663  0.000
178 5 159.287 57.522  0.000
179 5 159.287 57.522  1.780
180 5 158.038 59.663  1.780
181 5 158.038 59.663  0.000
182 5 156.789 57.521  0.000
183 5 156.789 57.521  1.780
184 5 155.540 59.663  0.000
185 5 154.650 58.404  0.890
186 5 155.540 59.663  1.780
187 4 206.785 58.150  0.890
188 4 205.536 59.034  0.890
189 4 204.287 58.150  0.890
190 4 203.037 59.034  0.890
191 4 201.788 58.150  0.890
192 4 200.539 59.034  0.890
193 4 199.290 58.151  0.890
194 4 198.040 59.034  0.890
195 4 196.792 58.151  0.890
196 4 195.542 59.033  0.890
197 4 194.293 58.151  0.890
198 4 193.043 59.033  0.890
199 4 191.795 58.151  0.890
200 4 190.545 59.033  0.890
201 4 189.296 58.151  0.890
202 4 188.047 59.034  0.890
203 4 186.798 58.151  0.890
204 4 185.548 59.034  0.890
205 4 184.299 58.150  0.890
206 4 183.050 59.034  0.890
207 5 206.785 57.521  1.780
208 5 206.785 57.521  0.000
209 5 207.675 58.780  0.890
210 5 205.536 59.663  1.780
211 5 205.536 59.663  0.000
212 5 204.287 57.521  0.000
213 5 204.287 57.521  1.780
214 5 203.038 59.663  1.780
215 5 203.038 59.663  0.000
216 5 201.788 57.521  0.000
217 5 201.788 57.521  1.780
218 5 200.539 59.664  1.780
219 5 200.539 59.664  0.000
220 5 199.290 57.521  0.000
221 5 199.290 57.521  1.780
222 5 198.041 59.664  1.780
223 5 198.041 59.664  0.000
224 5 196.791 57.521  0.000
225 5 196.791 57.521  1.780
226 5 195.542 59.663  1.780
227 5 195.542 59.663  0.000
228 5 194.293 57.521  0.000
229 5 194.293 57.521  1.780
230 5 193.044 59.663  1.780
231 5 193.044 59.663  0.000
232 5 191.794 57.521  0.000
233 5 191.794 57.521  1.780
234 5 190.545 59.663  1.780
235 5 190.545 59.663  0.000
236 5 189.296 57.521  0.000
237 5 189.296 57.521  1.780
238 5 188.047 59.663  1.780
239 5 188.047 59.663  0.000
240 5 186.797 57.522  0.000
241 5 186.797 57.522  1.780
242 5 185.548 59.663  1.780
243 5 185.548 59.663  0.000
244 5 184.299 57.521  0.000
245 5 184.299 57.521  1.780
246 5 183.050 59.663  0.000
247 5 182.160 58.404  0.890
248 5 183.050 59.663  1.780
249 4 234.295 58.150  0.890
250 4 233.046 59.034  0.890
251 4 231.797 58.150  0.890
252 4 230.547 59.034  0.890
253 4 229.298 58.150  0.890
254 4 228.049 59.034  0.890
255 4 226.800 58.151  0.890
256 4 225.550 59.034  0.890
257 4 224.302 58.151  0.890
258 4 223.052 59.033  0.890
259 4 221.803 58.151  0.890
260 4 220.553 59.033  0.890
261 4 219.305 58.151  0.890
262 4 218.055 59.033  0.890
263 4 216.806 58.151  0.890
264 4 215.557 59.034  0.890
265 4 214.308 58.151  0.890
266 4 213.058 59.034  0.890
267 4 211.809 58.150  0.890
268 4 210.560 59.034  0.890
269 5 234.295 57.521  1.780
270 5 234.295 57.521  0.000
271 5 235.185 58.780  0.890
272 5 233.046 59.663  1.780
273 5 233.046 59.663  0.000
274 5 231.797 57.521  0.000
275 5 231.797 57.521  1.780
276 5 230.548 59.663  1.780
277 5 230.548 59.663  0.000
278 5 229.298 57.521  0.000
279 5 229.298 57.521  1.780
280 5 228.049 59.664  1.780
281 5 228.049 59.664  0.000
282 5 226.800 57.521  0.000
283 5 226.800 57.521  1.780
284 5 225.551 59.664  1.780
285 5 225.551 59.664  0.000
286 5 224.301 57.521  0.000
287 5 224.301 57.521  1.780
288 5 223.052 59.663  1.780
289 5 223.052 59.663  0.000
290 5 221.803 57.521  0.000
291 5 221.803 57.521  1.780
292 5 220.554 59.663  1.780
293 5 220.554 59.663  0.000
294 5 219.304 57.521  0.000
295 5 219.304 57.521  1.780
296 5 218.055 59.663  1.780
297 5 218.055 59.663  0.000
298 5 216.806 57.521  0.000
299 5 216.806 57.521  1.780
300 5 215.557 59.663  1.780
301 5 215.557 59.663  0.000
302 5 214.307 57.522  0.000
303 5 214.307 57.522  1.780
304 5 213.058 59.663  1.780
305 5 213.058 59.663  0.000
306 5 211.809 57.521  0.000
307 5 211.809 57.521  1.780
308 5 210.560 59.663  0.000
309 5 209.670 58.404  0.890
310 5 210.560 59.663  1.780
311 4 261.805 58.150  0.890
312 4 260.556 59.034  0.890
313 4 259.307 58.150  0.890
314 4 258.057 59.034  0.890
315 4 256.808 58.150  0.890
316 4 255.559 59.034  0.890
317 4 254.310 58.151  0.890
318 4 253.060 59.034  0.890
319 4 251.812 58.151  0.890
320 4 250.562 59.033  0.890
321 4 249.313 58.151  0.890
322 4 248.063 59.033  0.890
323 4 246.815 58.151  0.890
324 4 245.565 59.033  0.890
325 4 244.316 58.151  0.890
326 4 243.067 59.034  0.890
327 4 241.818 58.151  0.890
328 4 240.568 59.034  0.890
329 4 239.319 58.150  0.890
330 4 238.070 59.034  0.890
331 5 261.805 57.521  1.780
332 5 261.805 57.521  0.000
333 5 262.695 58.780  0.890
334 5 260.556 59.663  1.780
335 5 260.556 59.663  0.000
336 5 259.307 57.521  0.000
337 5 259.307 57.521  1.780
338 5 258.058 59.663  1.780
339 5 258.058 59.663  0.000
340 5 256.808 57.521  0.000
341 5 256.808 57.521  1.780
342 5 255.559 59.664  1.780
343 5 255.559 59.664  0.000
344 5 254.310 57.521  0.000
345 5 254.310 57.521  1.780
346 5 253.061 59.664  1.780
347 5 253.061 59.664  0.000
348 5 251.811 57.521  0.000
349 5 251.811 57.521  1.780
350 5 250.562 59.663  1.780
351 5 250.562 59.663  0.000
352 5 249.313 57.521  0.000
353 5 249.313 57.521  1.780
354 5 248.064 59.663  1.780
355 5 248.064 59.663  0.000
356 5 246.814 57.521  0.000
357 5 246.814 57.521  1.780
358 5 245.565 59.663  1.780
359 5 245.565 59.663  0.000
360 5 244.316 57.521  0.000
361 5 244.316 57.521  1.780
362 5 243.067 59.663  1.780
363 5 243.067 59.663  0.000
364 5 241.817 57.522  0.000
365 5 241.817 57.522  1.780
366 5 240.568 59.663  1.780
367 5 240.568 59.663  0.000
368 5 239.319 57.521  0.000
369 5 239.319 57.521  1.780
370 5 238.070 59.663  0.000
371 5 237.180 58.404  0.890
372 5 238.070 59.663  1.780
373 4 289.315 58.150  0.890
374 4 288.066 59.034  0.890
375 4 286.817 58.150  0.890
376 4 285.567 59.034  0.890
377 4 284.318 58.150  0.890
378 4 283.069 59.034  0.890
379 4 281.820 58.151  0.890
380 4 280.570 59.034  0.890
381 4 279.322 58.151  0.890
382 4 278.072 59.033  0.890
383 4 276.823 58.151  0.890
384 4 275.573 59.033  0.890
385 4 274.325 58.151  0.890
386 4 273.075 59.033  0.890
387 4 271.826 58.151  0.890
388 4 270.577 59.034  0.890
389 4 269.328 58.151  0.890
390 4 268.078 59.034  0.890
391 4 266.829 58.150  0.890
392 4 265.580 59.034  0.890
393 5 289.315 57.521  1.780
394 5 289.315 57.521  0.000
395 5 290.205 58.780  0.890
396 5 288.066 59.663  1.780
397 5 288.066 59.663  0.000
398 5 286.817 57.521  0.000
399 5 286.817 57.521  1.780
400 5 285.568 59.663  1.780
401 5 285.568 59.663  0.000
402 5 284.318 57.521  0.000
403 5 284.318 57.521  1.780
404 5 283.069 59.664  1.780
405 5 283.069 59.664  0.000
406 5 281.820 57.521  0.000
407 5 281.820 57.521  1.780
408 5 280.571 59.664  1.780
409 5 280.571 59.664  0.000
410 5 279.321 57.521  0.000
411 5 279.321 57.521  1.780
412 5 278.072 59.663  1.780
413 5 278.072 59.663  0.000
414 5 276.823 57.521  0.000
415 5 276.823 57.521  1.780
416 5 275.574 59.663  1.780
417 5 275.574 59.663  0.000
418 5 274.324 57.521  0.000
419 5 274.324 57.521  1.780
420 5 273.075 59.663  1.780
421 5 273.075 59.663  0.000
422 5 271.826 57.521  0.000
423 5 271.826 57.521  1.780
424 5 270.577 59.663  1.780
425 5 270.577 59.663  0.000
426 5 269.327 57.522  0.000
427 5 269.327 57.522  1.780
428 5 268.078 59.663  1.780
429 5 268.078 59.663  0.000
430 5 266.829 57.521  0.000
431 5 266.829 57.521  1.780
432 5 265.580 59.663  0.000
433 5 264.690 58.404  0.890
434 5 265.580 59.663  1.780
435 4 124.255 62.600  0.890
436 4 123.006 63.484  0.890
437 4 121.757 62.600  0.890
438 4 120.507 63.484  0.890
439 4 119.258 62.600  0.890
440 4 118.009 63.484  0.890
441 4 116.760 62.601  0.890
442 4 115.510 63.484  0.890
443 4 114.262 62.601  0.890
444 4 113.012 63.483  0.890
445 4 111.763 62.601  0.890
446 4 110.513 63.483  0.890
447 4 109.265 62.601  0.890
448 4 108.015 63.483  0.890
449 4 106.766 62.601  0.890
450 4 105.517 63.484  0.890
451 4 104.268 62.601  0.890
452 4 103.018 63.484  0.890
453 4 101.769 62.600  0.890
454 4 100.520 63.484  0.890
455 5 124.255 61.971  1.780
456 5 124.255 61.971  0.000
457 5 125.145 63.230  0.890
458 5 123.006 64.113  1.780
459 5 123.006 64.113  0.000
460 5 121.757 61.971  0.000
461 5 121.757 61.971  1.780
462 5 120.508 64.113  1.780
463 5 120.508 64.113  0.000
464 5 119.258 61.971  0.000
465 5 119.258 61.971  1.780
466 5 118.009 64.114  1.780
467 5 118.009 64.114  0.000
468 5 116.760 61.971  0.000
469 5 116.760 61.971  1.780
470 5 115.511 64.114  1.780
471 5 115.511 64.114  0.000
472 5 114.261 61.971  0.000
473 5 114.261 61.971  1.780
474 5 113.012 64.113  1.780
475 5 113.012 64.113  0.000
476 5 111.763 61.971  0.000
477 5 111.763 61.971  1.780
478 5 110.514 64.113  1.780
479 5 110.514 64.113  0.000
480 5 109.264 61.971  0.000
481 5 109.264 61.971  1.780
482 5 108.015 64.113  1.780
483 5 108.015 64.113  0.000
484 5 106.766 61.971  0.000
485 5 106.766 61.971  1.780
486 5 105.517 64.113  1.780
487 5 105.517 64.113  0.000
488 5 104.267 61.972  0.000
489 5 104.267 61.972  1.780
490 5 103.018 64.113  1.780
491 5 103.018 64.113  0.000
492 5 101.769 61.971  0.000
493 5 101.769 61.971  1.780
494 5 100.520 64.113  0.000
495 5 99.630 62.854  0.890
496 5 100.520 64.113  1.780
497 4 151.765 62.600  0.890
498 4 150.516 63.484  0.890
499 4 149.267 62.600  0.890
500 4 148.017 63.484  0.890
501 4 146.768 62.600  0.890
502 4 145.519 63.484  0.890
503 4 144.270 62.601  0.890
504 4 143.020 63.484  0.890
505 4 141.772 62.601  0.890
506 4 140.522 63.483  0.890
507 4 139.273 62.601  0.890
508 4 138.023 63.483  0.890
509 4 136.775 62.601  0.890
510 4 135.525 63.483  0.890
511 4 134.276 62.601  0.890
512 4 133.027 63.484  0.890
513 4 131.778 62.601  0.890
514 4 130.528 63.484  0.890
515 4 129.279 62.600  0.890
516 4 128.030 63.484  0.890
517 5 151.765 61.971  1.780
518 5 151.765 61.971  0.000
519 5 152.655 63.230  0.890
520 5 150.516 64.113  1.780
521 5 150.516 64.113  0.000
522 5 149.267 61.971  0.000
523 5 149.267 61.971  1.780
524 5 148.018 64.113  1.780
525 5 148.018 64.113  0.000
526 5 146.768 61.971  0.000
527 5 146.768 61.971  1.780
528 5 145.519 64.114  1.780
529 5 145.519 64.114  0.000
530 5 144.270 61.971  0.000
531 5 144.270 61.971  1.780
532 5 143.021 64.114  1.780
533 5 143.021 64.114  0.000
534 5 141.771 61.971  0.000
535 5 141.771 61.971  1.780
536 5 140.522 64.113  1.780
537 5 140.522 64.113  0.000
538 5 139.273 61.971  0.000
539 5 139.273 61.971  1.780
540 5 138.024 64.113  1.780
541 5 138.024 64.113  0.000
542 5 136.774 61.971  0.000
543 5 136.774 61.971  1.780
544 5 135.525 64.113  1.780
545 5 135.525 64.113  0.000
546 5 134.276 61.971  0.000
547 5 134.276 61.971  1.780
548 5 133.027 64.113  1.780
549 5 133.027 64.113  0.000
550 5 131.777 61.972  0.000
551 5 131.777 61.972  1.780
552 5 130.528 64.113  1.780
553 5 130.528 64.113  0.000
554 5 129.279 61.971  0.000
555 5 129.279 61.971  1.780
556 5 128.030 64.113  0.000
557 5 127.140 62.854  0.890
558 5 128.030 64.113  1.780
559 4 179.275 62.600  0.890
560 4 178.026 63.484  0.890
561 4 176.777 62.600  0.890
562 4 175.527 63.484  0.890
563 4 174.278 62.600  0.890
564 4 173.029 63.484  0.890
565 4 171.780 62.601  0.890
566 4 170.530 63.484  0.890
567 4 169.282 62.601  0.890
568 4 168.032 63.483  0.890
569 4 166.783 62.601  0.890
570 4 165.533 63.483  0.890
571 4 164.285 62.601  0.890
572 4 163.035 63.483  0.890
573 4 161.786 62.601  0.890
574 4 160.537 63.484  0.890
575 4 159.288 62.601  0.890
576 4 158.038 63.484  0.890
577 4 156.789 62.600  0.890
578 4 155.540 63.484  0.890
579 5 179.275 61.971  1.780
580 5 179.275 61.971  0.000
581 5 180.165 63.230  0.890
582 5 178.026 64.113  1.780
583 5 178.026 64.113  0.000
584 5 176.777 61.971  0.000
585 5 176.777 61.971  1.780
586 5 175.528 64.113  1.780
587 5 175.528 64.113  0.000
588 5 174.278 61.971  0.000
589 5 174.278 61.971  1.780
590 5 173.029 64.114  1.780
591 5 173.029 64.114  0.000
592 5 171.780 61.971  0.000
593 5 171.780 61.971  1.780
594 5 170.531 64.114  1.780
595 5 170.531 64.114  0.000
596 5 169.281 61.971  0.000
597 5 169.281 61.971  1.780
598 5 168.032 64.113  1.780
599 5 168.032 64.113  0.000
600 5 166.783 61.971  0.000
601 5 166.783 61.971  1.780
602 5 165.534 64.113  1.780
603 5 165.534 64.113  0.000
604 5 164.284 61.971  0.000
605 5 164.284 61.971  1.780
606 5 163.035 64.113  1.780
607 5 163.035 64.113  0.000
608 5 161.786 61.971  0.000
609 5 161.786 61.971  1.780
610 5 160.537 64.113  1.780
611 5 160.537 64.113  0.000
612 5 159.287 61.972  0.000
613 5 159.287 61.972  1.780
614 5 158.038 64.113  1.780
615 5 158.038 64.113  0.000
616 5 156.789 61.971  0.000
617 5 156.789 61.971  1.780
618 5 155.540 64.113  0.000
619 5 154.650 62.854  0.890
620 5 155.540 64.113  1.780
621 4 206.785 62.600  0.890
622 4 205.536 63.484  0.890
623 4 204.287 62.600  0.890
624 4 203.037 63.484  0.890
625 4 201.788 62.600  0.890
626 4 200.539 63.484  0.890
627 4 199.290 62.601  0.890
628 4 198.040 63.484  0.890
629 4 196.792 62.601  0.890
630 4 195.542 63.483  0.890
631 4 194.293 62.601  0.890
632 4 193.043 63.483  0.890
633 4 191.795 62.601  0.890
634 4 190.545 63.483  0.890
635 4 189.296 62.601  0.890
636 4 188.047 63.484  0.890
637 4 186.798 62.601  0.890
638 4 185.548 63.484  0.890
639 4 184.299 62.600  0.890
640 4 183.050 63.484  0.890
641 5 206.785 61.971  1.780
642 5 206.785 61.971  0.000
643 5 207.675 63.230  0.890
644 5 205.536 64.113  1.780
645 5 205.536 64.113  0.000
646 5 204.287 61.971  0.000
647 5 204.287 61.971  1.780
648 5 203.038 64.113  1.780
649 5 203.038 64.113  0.000
650 5 201.788 61.971  0.000
651 5 201.788 61.971  1.780
652 5 200.539 64.114  1.780
653 5 200.539 64.114  0.000
654 5 199.290 61.971  0.000
655 5 199.290 61.971  1.780
656 5 198.041 64.114  1.780
657 5 198.041 64.114  0.000
658 5 196.791 61.971  0.000
659 5 196.791 61.971  1.780
660 5 195.542 64.113  1.780
661 5 195.542 64.113  0.000
662 5 194.293 61.971  0.000
663 5 194.293 61.971  1.780
664 5 193.044 64.113  1.780
665 5 193.044 64.113  0.000
666 5 191.794 61.971  0.000
667 5 191.794 61.971  1.780
668 5 190.545 64.113  1.780
669 5 190.545 64.113  0.000
670 5 189.296 61.971  0.000
671 5 189.296 61.971  1.780
672 5 188.047 64.113  1.780
673 5 188.047 64.113  0.000
674 5 186.797 61.972  0.000
675 5 186.797 61.972  1.780
676 5 185.548 64.113  1.780
677 5 185.548 64.113  0.000
678 5 184.299 61.971  0.000
679 5 184.299 61.971  1.780
680 5 183.050 64.113  0.000
681 5 182.160 62.854  0.890
682 5 183.050 64.113  1.780
683 4 234.295 62.600  0.890
684 4 233.046 63.484  0.890
685 4 231.797 62.600  0.890
686 4 230.547 63.484  0.890
687 4 229.298 62.600  0.890
688 4 228.049 63.484  0.890
689 4 226.800 62.601  0.890
690 4 225.550 63.484  0.890
691 4 224.302 62.601  0.890
692 4 223.052 63.483  0.890
693 4 221.803 62.601  0.890
694 4 220.553 63.483  0.890
695 4 219.305 62.601  0.890
696 4 218.055 63.483  0.890
697 4 216.806 62.601  0.890
698 4 215.557 63.484  0.890
699 4 214.308 62.601  0.890
700 4 213.058 63.484  0.890
701 4 211.809 62.600  0.890
702 4 210.560 63.484  0.890
703 5 234.295 61.971  1.780
704 5 234.295 61.971  0.000
705 5 235.185 63.230  0.890
706 5 233.046 64.113  1.780
707 5 233.046 64.113  0.000
708 5 231.797 61.971  0.000
709 5 231.797 61.971  1.780
710 5 230.548 64.113  1.780
711 5 230.548 64.113  0.000
712 5 229.298 61.971  0.000
713 5 229.298 61.971  1.780
714 5 228.049 64.114  1.780
715 5 228.049 64.114  0.000
716 5 226.800 61.971  0.000
717 5 226.800 61.971  1.780
718 5 225.551 64.114  1.780
719 5 225.551 64.114  0.000
720 5 224.301 61.971  0.000
721 5 224.301 61.971  1.780
722 5 223.052 64.113  1.780
723 5 223.052 64.113  0.000
724 5 221.803 61.971  0.000
725 5 221.803 61.971  1.780
726 5 220.554 64.113  1.780
727 5 220.554 64.113  0.000
728 5 219.304 61.971  0.000
729 5 219.304 61.971  1.780
730 5 218.055 64.113  1.780
731 5 218.055 64.113  0.000
732 5 216.806 61.971  0.000
733 5 216.806 61.971  1.780
734 5 215.557 64.113  1.780
735 5 215.557 64.113  0.000
736 5 214.307 61.972  0.000
737 5 214.307 61.972  1.780
738 5 213.058 64.113  1.780
739 5 213.058 64.113  0.000
740 5 211.809 61.971  0.000
741 5 211.809 61.971  1.780
742 5 210.560 64.113  0.000
743 5 209.670 62.854  0.890
744 5 210.560 64.113  1.780
745 4 261.805 62.600  0.890
746 4 260.556 63.484  0.890
747 4 259.307 62.600  0.890
748 4 258.057 63.484  0.890
749 4 256.808 62.600  0.890
750 4 255.559 63.484  0.890
751 4 254.310 62.601  0.890
752 4 253.060 63.484  0.890
753 4 251.812 62.601  0.890
754 4 250.562 63.483  0.890
755 4 249.313 62.601  0.890
756 4 248.063 63.483  0.890
757 4 246.815 62.601  0.890
758 4 245.565 63.483  0.890
759 4 244.316 62.601  0.890
760 4 243.067 63.484  0.890
761 4 241.818 62.601  0.890
762 4 240.568 63.484  0.890
763 4 239.319 62.600  0.890
764 4 238.070 63.484  0.890
765 5 261.805 61.971  1.780
766 5 261.805 61.971  0.000
767 5 262.695 63.230  0.890
768 5 260.556 64.113  1.780
769 5 260.556 64.113  0.000
770 5 259.307 61.971  0.000
771 5 259.307 61.971  1.780
772 5 258.058 64.113  1.780
773 5 258.058 64.113  0.000
774 5 256.808 61.971  0.000
775 5 256.808 61.971  1.780
776 5 255.559 64.114  1.780
777 5 255.559 64.114  0.000
778 5 254.310 61.971  0.000
779 5 254.310 61.971  1.780
780 5 253.061 64.114  1.780
781 5 253.061 64.114  0.000
782 5 251.811 61.971  0.000
783 5 251.811 61.971  1.780
784 5 250.562 64.113  1.780
785 5 250.562 64.113  0.000
786 5 249.313 61.971  0.000
787 5 249.313 61.971  1.780
788 5 248.064 64.113  1.780
789 5 248.064 64.113  0.000
790 5 246.814 61.971  0.000
791 5 246.814 61.971  1.780
792 5 245.565 64.113  1.780
793 5 245.565 64.113  0.000
794 5 244.316 61.971  0.000
795 5 244.316 61.971  1.780
796 5 243.067 64.113  1.780
797 5 243.067 64.113  0.000
798 5 241.817 61.972  0.000
799 5 241.817 61.972  1.780
800 5 240.568 64.113  1.780
801 5 240.568 64.113  0.000
802 5 239.319 61.971  0.000
803 5 239.319 61.971  1.780
804 5 238.070 64.113  0.000
805 5 237.180 62.854  0.890
806 5 238.070 64.113  1.780
807 4 289.315 62.600  0.890
808 4 288.066 63.484  0.890
809 4 286.817 62.600  0.890
810 4 285.567 63.484  0.890
811 4 284.318 62.600  0.890
812 4 283.069 63.484  0.890
813 4 281.820 62.601  0.890
814 4 280.570 63.484  0.890
815 4 279.322 62.601  0.890
816 4 278.072 63.483  0.890
817 4 276.823 62.601  0.890
818 4 275.573 63.483  0.890
819 4 274.325 62.601  0.890
820 4 273.075 63.483  0.890
821 4 271.826 62.601  0.890
822 4 270.577 63.484  0.890
823 4 269.328 62.601  0.890
824 4 268.078 63.484  0.890
825 4 266.829 62.600  0.890
826 4 265.580 63.484  0.890
827 5 289.315 61.971  1.780
828 5 289.315 61.971  0.000
829 5 290.205 63.230  0.890
830 5 288.066 64.113  1.780
831 5 288.066 64.113  0.000
832 5 286.817 61.971  0.000
833 5 286.817 61.971  1.780
834 5 285.568 64.113  1.780
835 5 285.568 64.113  0.000
836 5 284.318 61.971  0.000
837 5 284.318 61.971  1.780
838 5 283.069 64.114  1.780
839 5 283.069 64.114  0.000
840 5 281.820 61.971  0.000
841 5 281.820 61.971  1.780
842 5 280.571 64.114  1.780
843 5 280.571 64.114  0.000
844 5 279.321 61.971  0.000
845 5 279.321 61.971  1.780
846 5 278.072 64.113  1.780
847 5 278.072 64.113  0.000
848 5 276.823 61.971  0.000
849 5 276.823 61.971  1.780
850 5 275.574 64.113  1.780
851 5 275.574 64.113  0.000
852 5 274.324 61.971  0.000
853 5 274.324 61.971  1.780
854 5 273.075 64.113  1.780
855 5 273.075 64.113  0.000
856 5 271.826 61.971  0.000
857 5 271.826 61.971  1.780
858 5 270.577 64.113  1.780
859 5 270.577 64.113  0.000
860 5 269.327 61.972  0.000
861 5 269.327 61.972  1.780
862 5 268.078 64.113  1.780
863 5 268.078 64.113  0.000
864 5 266.829 61.971  0.000
865 5 266.829 61.971  1.780
866 5 265.580 64.113  0.000
867 5 264.690 62.854  0.890
868 5 265.580 64.113  1.780
869 4 124.255 67.050  0.890
870 4 123.006 67.934  0.890
871 4 121.757 67.050  0.890
872 4 120.507 67.934  0.890
873 4 119.258 67.050  0.890
874 4 118.009 67.934  0.890
875 4 116.760 67.051  0.890
876 4 115.510 67.934  0.890
877 4 114.262 67.051  0.890
878 4 113.012 67.933  0.890
879 4 111.763 67.051  0.890
880 4 110.513 67.933  0.890
881 4 109.265 67.051  0.890
882 4 108.015 67.933  0.890
883 4 106.766 67.051  0.890
884 4 105.517 67.934  0.890
885 4 104.268 67.051  0.890
886 4 103.018 67.934  0.890
887 4 101.769 67.050  0.890
888 4 100.520 67.934  0.890
889 5 124.255 66.421  1.780
890 5 124.255 66.421  0.000
891 5 125.145 67.680  0.890
892 5 123.006 68.563  1.780
893 5 123.006 68.563  0.000
894 5 121.757 66.421  0.000
895 5 121.757 66.421  1.780
896 5 120.508 68.563  1.780
897 5 120.508 68.563  0.000
898 5 119.258 66.421  0.000
899 5 119.258 66.421  1.780
900 5 118.009 68.564  1.780
901 5 118.009 68.564  0.000
902 5 116.760 66.421  0.000
903 5 116.760 66.421  1.780
904 5 115.511 68.564  1.780
905 5 115.511 68.564  0.000
906 5 114.261 66.421  0.000
907 5 114.261 66.421  1.780
908 5 113.012 68.563  1.780
909 5 113.012 68.563  0.000
910 5 111.763 66.421  0.000
911 5 111.763 66.421  1.780
912 5 110.514 68.563  1.780
913 5 110.514 68.563  0.000
914 5 109.264 66.421  0.000
915 5 109.264 66.421  1.780
916 5 108.015 68.563  1.780
917 5 108.015 68.563  0.000
918 5 106.766 66.421  0.000
919 5 106.766 66.421  1.780
920 5 105.517 68.563  1.780
921 5 105.517 68.563  0.000
922 5 104.267 66.422  0.000
923 5 104.267 66.422  1.780
924 5 103.018 68.563  1.780
925 5 103.018 68.563  0.000
926 5 101.769 66.421  0.000
927 5 101.769 66.421  1.780
928 5 100.520 68.563  0.000
929 5 99.630 67.304  0.890
930 5 100.520 68.563  1.780
931 4 151.765 67.050  0.890
932 4 150.516 67.934  0.890
933 4 149.267 67.050  0.890
934 4 148.017 67.934  0.890
935 4 146.768 67.050  0.890
936 4 145.519 67.934  0.890
937 4 144.270 67.051  0.890
938 4 143.020 67.934  0.890
939 4 141.772 67.051  0.890
940 4 140.522 67.933  0.890
941 4 139.273 67.051  0.890
942 4 138.023 67.933  0.890
943 4 136.775 67.051  0.890
944 4 135.525 67.933  0.890
945 4 134.276 67.051  0.890
946 4 133.027 67.934  0.890
947 4 131.778 67.051  0.890
948 4 130.528 67.934  0.890
949 4 129.279 67.050  0.890
950 4 128.030 67.934  0.890
951 5 151.765 66.421  1.780
952 5 151.765 66.421  0.000
953 5 152.655 67.680  0.890
954 5 150.516 68.563  1.780
955 5 150.516 68.563  0.000
956 5 149.267 66.421  0.000
957 5 149.267 66.421  1.780
958 5 148.018 68.563  1.780
959 5 148.018 68.563  0.000
960 5 146.768 66.421  0.000
961 5 146.768 66.421  1.780
962 5 145.519 68.564  1.780
963 5 145.519 68.564  0.000
964 5 144.270 66.421  0.000
965 5 144.270 66.421  1.780
966 5 143.021 68.564  1.780
967 5 143.021 68.564  0.000
968 5 141.771 66.421  0.000
969 5 141.771 66.421  1.780
970 5 140.522 68.563  1.780
971 5 140.522 68.563  0.000
972 5 139.273 66.421  0.000
973 5 139.273 66.421  1.780
974 5 138.024 68.563  1.780
975 5 138.024 68.563  0.000
976 5 136.774 66.421  0.000
977 5 136.774 66.421  1.780
978 5 135.525 68.563  1.780
979 5 135.525 68.563  0.000
980 5 134.276 66.421  0.000
981 5 134.276 66.421  1.780
982 5 133.027 68.563  1.780
983 5 133.027 68.563  0.000
984 5 131.777 66.422  0.000
985 5 131.777 66.422  1.780
986 5 130.528 68.563  1.780
987 5 130.528 68.563  0.000
988 5 129.279 66.421  0.000
989 5 129.279 66.421  1.780
990 5 128.030 68.563  0.000
991 5 127.140 67.304  0.890
992 5 128.030 68.563  1.780
993 4 179.275 67.050  0.890
994 4 178.026 67.934  0.890
995 4 176.777 67.050  0.890
996 4 175.527 67.934  0.890
997 4 174.278 67.050  0.890
998 4 173.029 67.934  0.890
999 4 171.780 67.051  0.890
1000 4 170.530 67.934  0.890
1001 4 169.282 67.051  0.890
1002 4 168.032 67.933  0.890
1003 4 166.783 67.051  0.890
1004 4 165.533 67.933  0.890
1005 4 164.285 67.051  0.890
1006 4 163.035 67.933  0.890
1007 4 161.786 67.051  0.890
1008 4 160.537 67.934  0.890
1009 4 159.288 67.051  0.890
1010 4 158.038 67.934  0.890
1011 4 156.789 67.050  0.890
1012 4 155.540 67.934  0.890
1013 5 179.275 66.421  1.780
1014 5 179.275 66.421  0.000
1015 5 180.165 67.680  0.890
1016 5 178.026 68.563  1.780
1017 5 178.026 68.563  0.000
1018 5 176.777 66.421  0.000
1019 5 176.777 66.421  1.780
1020 5 175.528 68.563  1.780
1021 5 175.528 68.563  0.000
1022 5 174.278 66.421  0.000
1023 5 174.278 66.421  1.780
1024 5 173.029 68.564  1.780
1025 5 173.029 68.564  0.000
1026 5 171.780 66.421  0.000
1027 5 171.780 66.421  1.780
1028 5 170.531 68.564  1.780
1029 5 170.531 68.564  0.000
1030 5 169.281 66.421  0.000
1031 5 169.281 66.421  1.780
1032 5 168.032 68.563  1.780
1033 5 168.032 68.563  0.000
1034 5 166.783 66.421  0.000
1035 5 166.783 66.421  1.780
1036 5 165.534 68.563  1.780
1037 5 165.534 68.563  0.000
1038 5 164.284 66.421  0.000
1039 5 164.284 66.421  1.780
1040 5 163.035 68.563  1.780
1041 5 163.035 68.563  0.000
1042 5 161.786 66.421  0.000
1043 5 161.786 66.421  1.780
1044 5 160.537 68.563  1.780
1045 5 160.537 68.563  0.000
1046 5 159.287 66.422  0.000
1047 5 159.287 66.422  1.780
1048 5 158.038 68.563  1.780
1049 5 158.038 68.563  0.000
1050 5 156.789 66.421  0.000
1051 5 156.789 66.421  1.780
1052 5 155.540 68.563  0.000
1053 5 154.650 67.304  0.890
1054 5 155.540 68.563  1.780
1055 4 206.785 67.050  0.890
1056 4 205.536 67.934  0.890
1057 4 204.287 67.050  0.890
1058 4 203.037 67.934  0.890
1059 4 201.788 67.050  0.890
1060 4 200.539 67.934  0.890
1061 4 199.290 67.051  0.890
1062 4 198.040 67.934  0.890
1063 4 196.792 67.051  0.890
1064 4 195.542 67.933  0.890
1065 4 194.293 67.051  0.890
1066 4 193.043 67.933  0.890
1067 4 191.795 67.051  0.890
1068 4 190.545 67.933  0.890