# LAMMPS data file written by OVITO
62 atoms
5 atom types
0.0 25.5119992 xlo xhi
0.0 2.2679999 ylo yhi
0.0 1.78 zlo zhi

Atoms # atomic

1 4 24.6249256 0.6289974 0.89
2 4 23.3761673 1.5124548 0.89
3 4 22.1268787 0.6288836 0.89
4 4 20.877123 1.512347 0.89
5 4 19.6278343 0.628776 0.89
6 4 18.3790779 1.5122333 0.89
7 4 17.1297951 0.6296624 0.89
8 4 15.8800316 1.5121256 0.89
9 4 14.6317501 0.6295488 0.89
10 4 13.3819876 1.5120121 0.89
11 4 12.1327057 0.6294412 0.89
12 4 10.8829422 1.5119044 0.89
13 4 9.6346617 0.6293274 0.89
14 4 8.3848972 1.5117908 0.89
15 4 7.1356154 0.6292199 0.89
16 4 5.8868576 1.5126772 0.89
17 4 4.6375704 0.6291062 0.89
18 4 3.3878133 1.5125696 0.89
19 4 2.1385255 0.6289987 0.89
20 4 0.8897682 1.5124558 0.89
21 5 24.6251774 -1.5484169e-05 1.78
22 5 24.6251774 -1.5484169e-05 0.0
23 5 25.5146923 1.2587062 0.89
24 5 23.3759155 2.1414671 1.78
25 5 23.3759155 2.1414671 0.0
26 5 22.1271324 -1.2898631e-04 0.0
27 5 22.1271324 -1.2898631e-04 1.78
28 5 20.8778706 2.1413534 1.78
29 5 20.8778706 2.1413534 0.0
30 5 19.6280861 -2.3663976e-04 0.0
31 5 19.6280861 -2.3663976e-04 1.78
32 5 18.37883 2.1422458 1.78
33 5 18.37883 2.1422458 0.0
34 5 17.1300411 -3.5025366e-04 0.0
35 5 17.1300411 -3.5025366e-04 1.78
36 5 15.880786 2.1421323 1.78
37 5 15.880786 2.1421323 0.0
38 5 14.6309958 -4.5789967e-04 0.0
39 5 14.6309958 -4.5789967e-04 1.78
40 5 13.3817415 2.1420248 1.78
41 5 13.3817415 2.1420248 0.0
42 5 12.1329517 -5.7161784e-04 0.0
43 5 12.1329517 -5.7161784e-04 1.78
44 5 10.8836966 2.141911 1.78
45 5 10.8836966 2.141911 0.0
46 5 9.6339064 -6.7927132e-04 0.0
47 5 9.6339064 -6.7927132e-04 1.78
48 5 8.3846512 2.1418035 1.78
49 5 8.3846512 2.1418035 0.0
50 5 7.1358609 -7.9287778e-04 0.0
51 5 7.1358609 -7.9287778e-04 1.78
52 5 5.8866062 2.14169 1.78
53 5 5.8866062 2.14169 0.0
54 5 4.6368213 9.9555588e-05 0.0
55 5 4.6368213 9.9555588e-05 1.78
56 5 3.3875611 2.1415823 1.78
57 5 3.3875611 2.1415823 0.0
58 5 2.1387765 -1.4054589e-05 0.0
59 5 2.1387765 -1.4054589e-05 1.78
60 5 0.8895168 2.1414685 0.0
61 5 -1.8626452e-09 0.8827472 0.89
62 5 0.8895168 2.1414685 1.78
