#
13454 atoms
5 atom types
0.0 280.440000 xlo xhi
0.0 242.868164 ylo yhi
0.0 1.78 zlo zhi
140.220000 0.0 0.0 xy xz yz

Atoms # atomic

1 4 129.790 61.851  0.629
2 4 128.541 61.851  1.512
3 4 127.292 61.851  0.629
4 4 126.042 61.851  1.512
5 4 124.793 61.851  0.629
6 4 123.544 61.851  1.512
7 4 122.295 61.851  0.630
8 4 121.045 61.851  1.512
9 4 119.797 61.851  0.630
10 4 118.547 61.851  1.512
11 4 117.298 61.851  0.629
12 4 116.048 61.851  1.512
13 4 114.800 61.851  0.629
14 4 113.550 61.851  1.512
15 4 112.301 61.851  0.629
16 4 111.052 61.851  1.513
17 4 109.803 61.851  0.629
18 4 108.553 61.851  1.513
19 4 107.304 61.851  0.629
20 4 106.055 61.851  1.512
21 5 129.790 60.961  0.000
22 5 129.790 62.741  0.000
23 5 130.680 61.851  1.259
24 5 128.541 60.961  2.141
25 5 128.541 62.741  2.141
26 5 127.292 62.741 -0.000
27 5 127.292 60.961 -0.000
28 5 126.043 60.961  2.141
29 5 126.043 62.741  2.141
30 5 124.793 62.741 -0.000
31 5 124.793 60.961 -0.000
32 5 123.544 60.961  2.142
33 5 123.544 62.741  2.142
34 5 122.295 62.741 -0.000
35 5 122.295 60.961 -0.000
36 5 121.046 60.961  2.142
37 5 121.046 62.741  2.142
38 5 119.796 62.741 -0.000
39 5 119.796 60.961 -0.000
40 5 118.547 60.961  2.142
41 5 118.547 62.741  2.142
42 5 117.298 62.741 -0.001
43 5 117.298 60.961 -0.001
44 5 116.049 60.961  2.142
45 5 116.049 62.741  2.142
46 5 114.799 62.741 -0.001
47 5 114.799 60.961 -0.001
48 5 113.550 60.961  2.142
49 5 113.550 62.741  2.142
50 5 112.301 62.741 -0.001
51 5 112.301 60.961 -0.001
52 5 111.052 60.961  2.142
53 5 111.052 62.741  2.142
54 5 109.802 62.741  0.000
55 5 109.802 60.961  0.000
56 5 108.553 60.961  2.142
57 5 108.553 62.741  2.142
58 5 107.304 62.741  0.000
59 5 107.304 60.961 -0.000
60 5 106.055 62.741  2.141
61 5 105.165 61.851  0.883
62 5 106.055 60.961  2.141
63 4 158.300 61.851  0.629
64 4 157.051 61.851  1.512
65 4 155.802 61.851  0.629
66 4 154.552 61.851  1.512
67 4 153.303 61.851  0.629
68 4 152.054 61.851  1.512
69 4 150.805 61.851  0.630
70 4 149.555 61.851  1.512
71 4 148.307 61.851  0.630
72 4 147.057 61.851  1.512
73 4 145.808 61.851  0.629
74 4 144.558 61.851  1.512
75 4 143.310 61.851  0.629
76 4 142.060 61.851  1.512
77 4 140.811 61.851  0.629
78 4 139.562 61.851  1.513
79 4 138.313 61.851  0.629
80 4 137.063 61.851  1.513
81 4 135.814 61.851  0.629
82 4 134.565 61.851  1.512
83 5 158.300 60.961  0.000
84 5 158.300 62.741  0.000
85 5 159.190 61.851  1.259
86 5 157.051 60.961  2.141
87 5 157.051 62.741  2.141
88 5 155.802 62.741 -0.000
89 5 155.802 60.961 -0.000
90 5 154.553 60.961  2.141
91 5 154.553 62.741  2.141
92 5 153.303 62.741 -0.000
93 5 153.303 60.961 -0.000
94 5 152.054 60.961  2.142
95 5 152.054 62.741  2.142
96 5 150.805 62.741 -0.000
97 5 150.805 60.961 -0.000
98 5 149.556 60.961  2.142
99 5 149.556 62.741  2.142
100 5 148.306 62.741 -0.000
101 5 148.306 60.961 -0.000
102 5 147.057 60.961  2.142
103 5 147.057 62.741  2.142
104 5 145.808 62.741 -0.001
105 5 145.808 60.961 -0.001
106 5 144.559 60.961  2.142
107 5 144.559 62.741  2.142
108 5 143.309 62.741 -0.001
109 5 143.309 60.961 -0.001
110 5 142.060 60.961  2.142
111 5 142.060 62.741  2.142
112 5 140.811 62.741 -0.001
113 5 140.811 60.961 -0.001
114 5 139.562 60.961  2.142
115 5 139.562 62.741  2.142
116 5 138.312 62.741  0.000
117 5 138.312 60.961  0.000
118 5 137.063 60.961  2.142
119 5 137.063 62.741  2.142
120 5 135.814 62.741  0.000
121 5 135.814 60.961 -0.000
122 5 134.565 62.741  2.141
123 5 133.675 61.851  0.883
124 5 134.565 60.961  2.141
125 4 186.810 61.851  0.629
126 4 185.561 61.851  1.512
127 4 184.312 61.851  0.629
128 4 183.062 61.851  1.512
129 4 181.813 61.851  0.629
130 4 180.564 61.851  1.512
131 4 179.315 61.851  0.630
132 4 178.065 61.851  1.512
133 4 176.817 61.851  0.630
134 4 175.567 61.851  1.512
135 4 174.318 61.851  0.629
136 4 173.068 61.851  1.512
137 4 171.820 61.851  0.629
138 4 170.570 61.851  1.512
139 4 169.321 61.851  0.629
140 4 168.072 61.851  1.513
141 4 166.823 61.851  0.629
142 4 165.573 61.851  1.513
143 4 164.324 61.851  0.629
144 4 163.075 61.851  1.512
145 5 186.810 60.961  0.000
146 5 186.810 62.741  0.000
147 5 187.700 61.851  1.259
148 5 185.561 60.961  2.141
149 5 185.561 62.741  2.141
150 5 184.312 62.741 -0.000
151 5 184.312 60.961 -0.000
152 5 183.063 60.961  2.141
153 5 183.063 62.741  2.141
154 5 181.813 62.741 -0.000
155 5 181.813 60.961 -0.000
156 5 180.564 60.961  2.142
157 5 180.564 62.741  2.142
158 5 179.315 62.741 -0.000
159 5 179.315 60.961 -0.000
160 5 178.066 60.961  2.142
161 5 178.066 62.741  2.142
162 5 176.816 62.741 -0.000
163 5 176.816 60.961 -0.000
164 5 175.567 60.961  2.142
165 5 175.567 62.741  2.142
166 5 174.318 62.741 -0.001
167 5 174.318 60.961 -0.001
168 5 173.069 60.961  2.142
169 5 173.069 62.741  2.142
170 5 171.819 62.741 -0.001
171 5 171.819 60.961 -0.001
172 5 170.570 60.961  2.142
173 5 170.570 62.741  2.142
174 5 169.321 62.741 -0.001
175 5 169.321 60.961 -0.001
176 5 168.072 60.961  2.142
177 5 168.072 62.741  2.142
178 5 166.822 62.741  0.000
179 5 166.822 60.961  0.000
180 5 165.573 60.961  2.142
181 5 165.573 62.741  2.142
182 5 164.324 62.741  0.000
183 5 164.324 60.961 -0.000
184 5 163.075 62.741  2.141
185 5 162.185 61.851  0.883
186 5 163.075 60.961  2.141
187 4 215.320 61.851  0.629
188 4 214.071 61.851  1.512
189 4 212.822 61.851  0.629
190 4 211.572 61.851  1.512
191 4 210.323 61.851  0.629
192 4 209.074 61.851  1.512
193 4 207.825 61.851  0.630
194 4 206.575 61.851  1.512
195 4 205.327 61.851  0.630
196 4 204.077 61.851  1.512
197 4 202.828 61.851  0.629
198 4 201.578 61.851  1.512
199 4 200.330 61.851  0.629
200 4 199.080 61.851  1.512
201 4 197.831 61.851  0.629
202 4 196.582 61.851  1.513
203 4 195.333 61.851  0.629
204 4 194.083 61.851  1.513
205 4 192.834 61.851  0.629
206 4 191.585 61.851  1.512
207 5 215.320 60.961  0.000
208 5 215.320 62.741  0.000
209 5 216.210 61.851  1.259
210 5 214.071 60.961  2.141
211 5 214.071 62.741  2.141
212 5 212.822 62.741 -0.000
213 5 212.822 60.961 -0.000
214 5 211.573 60.961  2.141
215 5 211.573 62.741  2.141
216 5 210.323 62.741 -0.000
217 5 210.323 60.961 -0.000
218 5 209.074 60.961  2.142
219 5 209.074 62.741  2.142
220 5 207.825 62.741 -0.000
221 5 207.825 60.961 -0.000
222 5 206.576 60.961  2.142
223 5 206.576 62.741  2.142
224 5 205.326 62.741 -0.000
225 5 205.326 60.961 -0.000
226 5 204.077 60.961  2.142
227 5 204.077 62.741  2.142
228 5 202.828 62.741 -0.001
229 5 202.828 60.961 -0.001
230 5 201.579 60.961  2.142
231 5 201.579 62.741  2.142
232 5 200.329 62.741 -0.001
233 5 200.329 60.961 -0.001
234 5 199.080 60.961  2.142
235 5 199.080 62.741  2.142
236 5 197.831 62.741 -0.001
237 5 197.831 60.961 -0.001
238 5 196.582 60.961  2.142
239 5 196.582 62.741  2.142
240 5 195.332 62.741  0.000
241 5 195.332 60.961  0.000
242 5 194.083 60.961  2.142
243 5 194.083 62.741  2.142
244 5 192.834 62.741  0.000
245 5 192.834 60.961 -0.000
246 5 191.585 62.741  2.141
247 5 190.695 61.851  0.883
248 5 191.585 60.961  2.141
249 4 243.830 61.851  0.629
250 4 242.581 61.851  1.512
251 4 241.332 61.851  0.629
252 4 240.082 61.851  1.512
253 4 238.833 61.851  0.629
254 4 237.584 61.851  1.512
255 4 236.335 61.851  0.630
256 4 235.085 61.851  1.512
257 4 233.837 61.851  0.630
258 4 232.587 61.851  1.512
259 4 231.338 61.851  0.629
260 4 230.088 61.851  1.512
261 4 228.840 61.851  0.629
262 4 227.590 61.851  1.512
263 4 226.341 61.851  0.629
264 4 225.092 61.851  1.513
265 4 223.843 61.851  0.629
266 4 222.593 61.851  1.513
267 4 221.344 61.851  0.629
268 4 220.095 61.851  1.512
269 5 243.830 60.961  0.000
270 5 243.830 62.741  0.000
271 5 244.720 61.851  1.259
272 5 242.581 60.961  2.141
273 5 242.581 62.741  2.141
274 5 241.332 62.741 -0.000
275 5 241.332 60.961 -0.000
276 5 240.083 60.961  2.141
277 5 240.083 62.741  2.141
278 5 238.833 62.741 -0.000
279 5 238.833 60.961 -0.000
280 5 237.584 60.961  2.142
281 5 237.584 62.741  2.142
282 5 236.335 62.741 -0.000
283 5 236.335 60.961 -0.000
284 5 235.086 60.961  2.142
285 5 235.086 62.741  2.142
286 5 233.836 62.741 -0.000
287 5 233.836 60.961 -0.000
288 5 232.587 60.961  2.142
289 5 232.587 62.741  2.142
290 5 231.338 62.741 -0.001
291 5 231.338 60.961 -0.001
292 5 230.089 60.961  2.142
293 5 230.089 62.741  2.142
294 5 228.839 62.741 -0.001
295 5 228.839 60.961 -0.001
296 5 227.590 60.961  2.142
297 5 227.590 62.741  2.142
298 5 226.341 62.741 -0.001
299 5 226.341 60.961 -0.001
300 5 225.092 60.961  2.142
301 5 225.092 62.741  2.142
302 5 223.842 62.741  0.000
303 5 223.842 60.961  0.000
304 5 222.593 60.961  2.142
305 5 222.593 62.741  2.142
306 5 221.344 62.741  0.000
307 5 221.344 60.961 -0.000
308 5 220.095 62.741  2.141
309 5 219.205 61.851  0.883
310 5 220.095 60.961  2.141
311 4 272.340 61.851  0.629
312 4 271.091 61.851  1.512
313 4 269.842 61.851  0.629
314 4 268.592 61.851  1.512
315 4 267.343 61.851  0.629
316 4 266.094 61.851  1.512
317 4 264.845 61.851  0.630
318 4 263.595 61.851  1.512
319 4 262.347 61.851  0.630
320 4 261.097 61.851  1.512
321 4 259.848 61.851  0.629
322 4 258.598 61.851  1.512
323 4 257.350 61.851  0.629
324 4 256.100 61.851  1.512
325 4 254.851 61.851  0.629
326 4 253.602 61.851  1.513
327 4 252.353 61.851  0.629
328 4 251.103 61.851  1.513
329 4 249.854 61.851  0.629
330 4 248.605 61.851  1.512
331 5 272.340 60.961  0.000
332 5 272.340 62.741  0.000
333 5 273.230 61.851  1.259
334 5 271.091 60.961  2.141
335 5 271.091 62.741  2.141
336 5 269.842 62.741 -0.000
337 5 269.842 60.961 -0.000
338 5 268.593 60.961  2.141
339 5 268.593 62.741  2.141
340 5 267.343 62.741 -0.000
341 5 267.343 60.961 -0.000
342 5 266.094 60.961  2.142
343 5 266.094 62.741  2.142
344 5 264.845 62.741 -0.000
345 5 264.845 60.961 -0.000
346 5 263.596 60.961  2.142
347 5 263.596 62.741  2.142
348 5 262.346 62.741 -0.000
349 5 262.346 60.961 -0.000
350 5 261.097 60.961  2.142
351 5 261.097 62.741  2.142
352 5 259.848 62.741 -0.001
353 5 259.848 60.961 -0.001
354 5 258.599 60.961  2.142
355 5 258.599 62.741  2.142
356 5 257.349 62.741 -0.001
357 5 257.349 60.961 -0.001
358 5 256.100 60.961  2.142
359 5 256.100 62.741  2.142
360 5 254.851 62.741 -0.001
361 5 254.851 60.961 -0.001
362 5 253.602 60.961  2.142
363 5 253.602 62.741  2.142
364 5 252.352 62.741  0.000
365 5 252.352 60.961  0.000
366 5 251.103 60.961  2.142
367 5 251.103 62.741  2.142
368 5 249.854 62.741  0.000
369 5 249.854 60.961 -0.000
370 5 248.605 62.741  2.141
371 5 247.715 61.851  0.883
372 5 248.605 60.961  2.141
373 4 300.850 61.851  0.629
374 4 299.601 61.851  1.512
375 4 298.352 61.851  0.629
376 4 297.102 61.851  1.512
377 4 295.853 61.851  0.629
378 4 294.604 61.851  1.512
379 4 293.355 61.851  0.630
380 4 292.105 61.851  1.512
381 4 290.857 61.851  0.630
382 4 289.607 61.851  1.512
383 4 288.358 61.851  0.629
384 4 287.108 61.851  1.512
385 4 285.860 61.851  0.629
386 4 284.610 61.851  1.512
387 4 283.361 61.851  0.629
388 4 282.112 61.851  1.513
389 4 280.863 61.851  0.629
390 4 279.613 61.851  1.513
391 4 278.364 61.851  0.629
392 4 277.115 61.851  1.512
393 5 300.850 60.961  0.000
394 5 300.850 62.741  0.000
395 5 301.740 61.851  1.259
396 5 299.601 60.961  2.141
397 5 299.601 62.741  2.141
398 5 298.352 62.741 -0.000
399 5 298.352 60.961 -0.000
400 5 297.103 60.961  2.141
401 5 297.103 62.741  2.141
402 5 295.853 62.741 -0.000
403 5 295.853 60.961 -0.000
404 5 294.604 60.961  2.142
405 5 294.604 62.741  2.142
406 5 293.355 62.741 -0.000
407 5 293.355 60.961 -0.000
408 5 292.106 60.961  2.142
409 5 292.106 62.741  2.142
410 5 290.856 62.741 -0.000
411 5 290.856 60.961 -0.000
412 5 289.607 60.961  2.142
413 5 289.607 62.741  2.142
414 5 288.358 62.741 -0.001
415 5 288.358 60.961 -0.001
416 5 287.109 60.961  2.142
417 5 287.109 62.741  2.142
418 5 285.859 62.741 -0.001
419 5 285.859 60.961 -0.001
420 5 284.610 60.961  2.142
421 5 284.610 62.741  2.142
422 5 283.361 62.741 -0.001
423 5 283.361 60.961 -0.001
424 5 282.112 60.961  2.142
425 5 282.112 62.741  2.142
426 5 280.862 62.741  0.000
427 5 280.862 60.961  0.000
428 5 279.613 60.961  2.142
429 5 279.613 62.741  2.142
430 5 278.364 62.741  0.000
431 5 278.364 60.961 -0.000
432 5 277.115 62.741  2.141
433 5 276.225 61.851  0.883
434 5 277.115 60.961  2.141
435 4 129.790 65.651  0.629
436 4 128.541 65.651  1.512
437 4 127.292 65.651  0.629
438 4 126.042 65.651  1.512
439 4 124.793 65.651  0.629
440 4 123.544 65.651  1.512
441 4 122.295 65.651  0.630
442 4 121.045 65.651  1.512
443 4 119.797 65.651  0.630
444 4 118.547 65.651  1.512
445 4 117.298 65.651  0.629
446 4 116.048 65.651  1.512
447 4 114.800 65.651  0.629
448 4 113.550 65.651  1.512
449 4 112.301 65.651  0.629
450 4 111.052 65.651  1.513
451 4 109.803 65.651  0.629
452 4 108.553 65.651  1.513
453 4 107.304 65.651  0.629
454 4 106.055 65.651  1.512
455 5 129.790 64.761  0.000
456 5 129.790 66.541  0.000
457 5 130.680 65.651  1.259
458 5 128.541 64.761  2.141
459 5 128.541 66.541  2.141
460 5 127.292 66.541 -0.000
461 5 127.292 64.761 -0.000
462 5 126.043 64.761  2.141
463 5 126.043 66.541  2.141
464 5 124.793 66.541 -0.000
465 5 124.793 64.761 -0.000
466 5 123.544 64.761  2.142
467 5 123.544 66.541  2.142
468 5 122.295 66.541 -0.000
469 5 122.295 64.761 -0.000
470 5 121.046 64.761  2.142
471 5 121.046 66.541  2.142
472 5 119.796 66.541 -0.000
473 5 119.796 64.761 -0.000
474 5 118.547 64.761  2.142
475 5 118.547 66.541  2.142
476 5 117.298 66.541 -0.001
477 5 117.298 64.761 -0.001
478 5 116.049 64.761  2.142
479 5 116.049 66.541  2.142
480 5 114.799 66.541 -0.001
481 5 114.799 64.761 -0.001
482 5 113.550 64.761  2.142
483 5 113.550 66.541  2.142
484 5 112.301 66.541 -0.001
485 5 112.301 64.761 -0.001
486 5 111.052 64.761  2.142
487 5 111.052 66.541  2.142
488 5 109.802 66.541  0.000
489 5 109.802 64.761  0.000
490 5 108.553 64.761  2.142
491 5 108.553 66.541  2.142
492 5 107.304 66.541  0.000
493 5 107.304 64.761 -0.000
494 5 106.055 66.541  2.141
495 5 105.165 65.651  0.883
496 5 106.055 64.761  2.141
497 4 158.300 65.651  0.629
498 4 157.051 65.651  1.512
499 4 155.802 65.651  0.629
500 4 154.552 65.651  1.512
501 4 153.303 65.651  0.629
502 4 152.054 65.651  1.512
503 4 150.805 65.651  0.630
504 4 149.555 65.651  1.512
505 4 148.307 65.651  0.630
506 4 147.057 65.651  1.512
507 4 145.808 65.651  0.629
508 4 144.558 65.651  1.512
509 4 143.310 65.651  0.629
510 4 142.060 65.651  1.512
511 4 140.811 65.651  0.629
512 4 139.562 65.651  1.513
513 4 138.313 65.651  0.629
514 4 137.063 65.651  1.513
515 4 135.814 65.651  0.629
516 4 134.565 65.651  1.512
517 5 158.300 64.761  0.000
518 5 158.300 66.541  0.000
519 5 159.190 65.651  1.259
520 5 157.051 64.761  2.141
521 5 157.051 66.541  2.141
522 5 155.802 66.541 -0.000
523 5 155.802 64.761 -0.000
524 5 154.553 64.761  2.141
525 5 154.553 66.541  2.141
526 5 153.303 66.541 -0.000
527 5 153.303 64.761 -0.000
528 5 152.054 64.761  2.142
529 5 152.054 66.541  2.142
530 5 150.805 66.541 -0.000
531 5 150.805 64.761 -0.000
532 5 149.556 64.761  2.142
533 5 149.556 66.541  2.142
534 5 148.306 66.541 -0.000
535 5 148.306 64.761 -0.000
536 5 147.057 64.761  2.142
537 5 147.057 66.541  2.142
538 5 145.808 66.541 -0.001
539 5 145.808 64.761 -0.001
540 5 144.559 64.761  2.142
541 5 144.559 66.541  2.142
542 5 143.309 66.541 -0.001
543 5 143.309 64.761 -0.001
544 5 142.060 64.761  2.142
545 5 142.060 66.541  2.142
546 5 140.811 66.541 -0.001
547 5 140.811 64.761 -0.001
548 5 139.562 64.761  2.142
549 5 139.562 66.541  2.142
550 5 138.312 66.541  0.000
551 5 138.312 64.761  0.000
552 5 137.063 64.761  2.142
553 5 137.063 66.541  2.142
554 5 135.814 66.541  0.000
555 5 135.814 64.761 -0.000
556 5 134.565 66.541  2.141
557 5 133.675 65.651  0.883
558 5 134.565 64.761  2.141
559 4 186.810 65.651  0.629
560 4 185.561 65.651  1.512
561 4 184.312 65.651  0.629
562 4 183.062 65.651  1.512
563 4 181.813 65.651  0.629
564 4 180.564 65.651  1.512
565 4 179.315 65.651  0.630
566 4 178.065 65.651  1.512
567 4 176.817 65.651  0.630
568 4 175.567 65.651  1.512
569 4 174.318 65.651  0.629
570 4 173.068 65.651  1.512
571 4 171.820 65.651  0.629
572 4 170.570 65.651  1.512
573 4 169.321 65.651  0.629
574 4 168.072 65.651  1.513
575 4 166.823 65.651  0.629
576 4 165.573 65.651  1.513
577 4 164.324 65.651  0.629
578 4 163.075 65.651  1.512
579 5 186.810 64.761  0.000
580 5 186.810 66.541  0.000
581 5 187.700 65.651  1.259
582 5 185.561 64.761  2.141
583 5 185.561 66.541  2.141
584 5 184.312 66.541 -0.000
585 5 184.312 64.761 -0.000
586 5 183.063 64.761  2.141
587 5 183.063 66.541  2.141
588 5 181.813 66.541 -0.000
589 5 181.813 64.761 -0.000
590 5 180.564 64.761  2.142
591 5 180.564 66.541  2.142
592 5 179.315 66.541 -0.000
593 5 179.315 64.761 -0.000
594 5 178.066 64.761  2.142
595 5 178.066 66.541  2.142
596 5 176.816 66.541 -0.000
597 5 176.816 64.761 -0.000
598 5 175.567 64.761  2.142
599 5 175.567 66.541  2.142
600 5 174.318 66.541 -0.001
601 5 174.318 64.761 -0.001
602 5 173.069 64.761  2.142
603 5 173.069 66.541  2.142
604 5 171.819 66.541 -0.001
605 5 171.819 64.761 -0.001
606 5 170.570 64.761  2.142
607 5 170.570 66.541  2.142
608 5 169.321 66.541 -0.001
609 5 169.321 64.761 -0.001
610 5 168.072 64.761  2.142
611 5 168.072 66.541  2.142
612 5 166.822 66.541  0.000
613 5 166.822 64.761  0.000
614 5 165.573 64.761  2.142
615 5 165.573 66.541  2.142
616 5 164.324 66.541  0.000
617 5 164.324 64.761 -0.000
618 5 163.075 66.541  2.141
619 5 162.185 65.651  0.883
620 5 163.075 64.761  2.141
621 4 215.320 65.651  0.629
622 4 214.071 65.651  1.512
623 4 212.822 65.651  0.629
624 4 211.572 65.651  1.512
625 4 210.323 65.651  0.629
626 4 209.074 65.651  1.512
627 4 207.825 65.651  0.630
628 4 206.575 65.651  1.512
629 4 205.327 65.651  0.630
630 4 204.077 65.651  1.512
631 4 202.828 65.651  0.629
632 4 201.578 65.651  1.512
633 4 200.330 65.651  0.629
634 4 199.080 65.651  1.512
635 4 197.831 65.651  0.629
636 4 196.582 65.651  1.513
637 4 195.333 65.651  0.629
638 4 194.083 65.651  1.513
639 4 192.834 65.651  0.629
640 4 191.585 65.651  1.512
641 5 215.320 64.761  0.000
642 5 215.320 66.541  0.000
643 5 216.210 65.651  1.259
644 5 214.071 64.761  2.141
645 5 214.071 66.541  2.141
646 5 212.822 66.541 -0.000
647 5 212.822 64.761 -0.000
648 5 211.573 64.761  2.141
649 5 211.573 66.541  2.141
650 5 210.323 66.541 -0.000
651 5 210.323 64.761 -0.000
652 5 209.074 64.761  2.142
653 5 209.074 66.541  2.142
654 5 207.825 66.541 -0.000
655 5 207.825 64.761 -0.000
656 5 206.576 64.761  2.142
657 5 206.576 66.541  2.142
658 5 205.326 66.541 -0.000
659 5 205.326 64.761 -0.000
660 5 204.077 64.761  2.142
661 5 204.077 66.541  2.142
662 5 202.828 66.541 -0.001
663 5 202.828 64.761 -0.001
664 5 201.579 64.761  2.142
665 5 201.579 66.541  2.142
666 5 200.329 66.541 -0.001
667 5 200.329 64.761 -0.001
668 5 199.080 64.761  2.142
669 5 199.080 66.541  2.142
670 5 197.831 66.541 -0.001
671 5 197.831 64.761 -0.001
672 5 196.582 64.761  2.142
673 5 196.582 66.541  2.142
674 5 195.332 66.541  0.000
675 5 195.332 64.761  0.000
676 5 194.083 64.761  2.142
677 5 194.083 66.541  2.142
678 5 192.834 66.541  0.000
679 5 192.834 64.761 -0.000
680 5 191.585 66.541  2.141
681 5 190.695 65.651  0.883
682 5 191.585 64.761  2.141
683 4 243.830 65.651  0.629
684 4 242.581 65.651  1.512
685 4 241.332 65.651  0.629
686 4 240.082 65.651  1.512
687 4 238.833 65.651  0.629
688 4 237.584 65.651  1.512
689 4 236.335 65.651  0.630
690 4 235.085 65.651  1.512
691 4 233.837 65.651  0.630
692 4 232.587 65.651  1.512
693 4 231.338 65.651  0.629
694 4 230.088 65.651  1.512
695 4 228.840 65.651  0.629
696 4 227.590 65.651  1.512
697 4 226.341 65.651  0.629
698 4 225.092 65.651  1.513
699 4 223.843 65.651  0.629
700 4 222.593 65.651  1.513
701 4 221.344 65.651  0.629
702 4 220.095 65.651  1.512
703 5 243.830 64.761  0.000
704 5 243.830 66.541  0.000
705 5 244.720 65.651  1.259
706 5 242.581 64.761  2.141
707 5 242.581 66.541  2.141
708 5 241.332 66.541 -0.000
709 5 241.332 64.761 -0.000
710 5 240.083 64.761  2.141
711 5 240.083 66.541  2.141
712 5 238.833 66.541 -0.000
713 5 238.833 64.761 -0.000
714 5 237.584 64.761  2.142
715 5 237.584 66.541  2.142
716 5 236.335 66.541 -0.000
717 5 236.335 64.761 -0.000
718 5 235.086 64.761  2.142
719 5 235.086 66.541  2.142
720 5 233.836 66.541 -0.000
721 5 233.836 64.761 -0.000
722 5 232.587 64.761  2.142
723 5 232.587 66.541  2.142
724 5 231.338 66.541 -0.001
725 5 231.338 64.761 -0.001
726 5 230.089 64.761  2.142
727 5 230.089 66.541  2.142
728 5 228.839 66.541 -0.001
729 5 228.839 64.761 -0.001
730 5 227.590 64.761  2.142
731 5 227.590 66.541  2.142
732 5 226.341 66.541 -0.001
733 5 226.341 64.761 -0.001
734 5 225.092 64.761  2.142
735 5 225.092 66.541  2.142
736 5 223.842 66.541  0.000
737 5 223.842 64.761  0.000
738 5 222.593 64.761  2.142
739 5 222.593 66.541  2.142
740 5 221.344 66.541  0.000
741 5 221.344 64.761 -0.000
742 5 220.095 66.541  2.141
743 5 219.205 65.651  0.883
744 5 220.095 64.761  2.141
745 4 272.340 65.651  0.629
746 4 271.091 65.651  1.512
747 4 269.842 65.651  0.629
748 4 268.592 65.651  1.512
749 4 267.343 65.651  0.629
750 4 266.094 65.651  1.512
751 4 264.845 65.651  0.630
752 4 263.595 65.651  1.512
753 4 262.347 65.651  0.630
754 4 261.097 65.651  1.512
755 4 259.848 65.651  0.629
756 4 258.598 65.651  1.512
757 4 257.350 65.651  0.629
758 4 256.100 65.651  1.512
759 4 254.851 65.651  0.629
760 4 253.602 65.651  1.513
761 4 252.353 65.651  0.629
762 4 251.103 65.651  1.513
763 4 249.854 65.651  0.629
764 4 248.605 65.651  1.512
765 5 272.340 64.761  0.000
766 5 272.340 66.541  0.000
767 5 273.230 65.651  1.259
768 5 271.091 64.761  2.141
769 5 271.091 66.541  2.141
770 5 269.842 66.541 -0.000
771 5 269.842 64.761 -0.000
772 5 268.593 64.761  2.141
773 5 268.593 66.541  2.141
774 5 267.343 66.541 -0.000
775 5 267.343 64.761 -0.000
776 5 266.094 64.761  2.142
777 5 266.094 66.541  2.142
778 5 264.845 66.541 -0.000
779 5 264.845 64.761 -0.000
780 5 263.596 64.761  2.142
781 5 263.596 66.541  2.142
782 5 262.346 66.541 -0.000
783 5 262.346 64.761 -0.000
784 5 261.097 64.761  2.142
785 5 261.097 66.541  2.142
786 5 259.848 66.541 -0.001
787 5 259.848 64.761 -0.001
788 5 258.599 64.761  2.142
789 5 258.599 66.541  2.142
790 5 257.349 66.541 -0.001
791 5 257.349 64.761 -0.001
792 5 256.100 64.761  2.142
793 5 256.100 66.541  2.142
794 5 254.851 66.541 -0.001
795 5 254.851 64.761 -0.001
796 5 253.602 64.761  2.142
797 5 253.602 66.541  2.142
798 5 252.352 66.541  0.000
799 5 252.352 64.761  0.000
800 5 251.103 64.761  2.142
801 5 251.103 66.541  2.142
802 5 249.854 66.541  0.000
803 5 249.854 64.761 -0.000
804 5 248.605 66.541  2.141
805 5 247.715 65.651  0.883
806 5 248.605 64.761  2.141
807 4 300.850 65.651  0.629
808 4 299.601 65.651  1.512
809 4 298.352 65.651  0.629
810 4 297.102 65.651  1.512
811 4 295.853 65.651  0.629
812 4 294.604 65.651  1.512
813 4 293.355 65.651  0.630
814 4 292.105 65.651  1.512
815 4 290.857 65.651  0.630
816 4 289.607 65.651  1.512
817 4 288.358 65.651  0.629
818 4 287.108 65.651  1.512
819 4 285.860 65.651  0.629
820 4 284.610 65.651  1.512
821 4 283.361 65.651  0.629
822 4 282.112 65.651  1.513
823 4 280.863 65.651  0.629
824 4 279.613 65.651  1.513
825 4 278.364 65.651  0.629
826 4 277.115 65.651  1.512
827 5 300.850 64.761  0.000
828 5 300.850 66.541  0.000
829 5 301.740 65.651  1.259
830 5 299.601 64.761  2.141
831 5 299.601 66.541  2.141
832 5 298.352 66.541 -0.000
833 5 298.352 64.761 -0.000
834 5 297.103 64.761  2.141
835 5 297.103 66.541  2.141
836 5 295.853 66.541 -0.000
837 5 295.853 64.761 -0.000
838 5 294.604 64.761  2.142
839 5 294.604 66.541  2.142
840 5 293.355 66.541 -0.000
841 5 293.355 64.761 -0.000
842 5 292.106 64.761  2.142
843 5 292.106 66.541  2.142
844 5 290.856 66.541 -0.000
845 5 290.856 64.761 -0.000
846 5 289.607 64.761  2.142
847 5 289.607 66.541  2.142
848 5 288.358 66.541 -0.001
849 5 288.358 64.761 -0.001
850 5 287.109 64.761  2.142
851 5 287.109 66.541  2.142
852 5 285.859 66.541 -0.001
853 5 285.859 64.761 -0.001
854 5 284.610 64.761  2.142
855 5 284.610 66.541  2.142
856 5 283.361 66.541 -0.001
857 5 283.361 64.761 -0.001
858 5 282.112 64.761  2.142
859 5 282.112 66.541  2.142
860 5 280.862 66.541  0.000
861 5 280.862 64.761  0.000
862 5 279.613 64.761  2.142
863 5 279.613 66.541  2.142
864 5 278.364 66.541  0.000
865 5 278.364 64.761 -0.000
866 5 277.115 66.541  2.141
867 5 276.225 65.651  0.883
868 5 277.115 64.761  2.141
869 4 129.790 69.451  0.629
870 4 128.541 69.451  1.512
871 4 127.292 69.451  0.629
872 4 126.042 69.451  1.512
873 4 124.793 69.451  0.629
874 4 123.544 69.451  1.512
875 4 122.295 69.451  0.630
876 4 121.045 69.451  1.512
877 4 119.797 69.451  0.630
878 4 118.547 69.451  1.512
879 4 117.298 69.451  0.629
880 4 116.048 69.451  1.512
881 4 114.800 69.451  0.629
882 4 113.550 69.451  1.512
883 4 112.301 69.451  0.629
884 4 111.052 69.451  1.513
885 4 109.803 69.451  0.629
886 4 108.553 69.451  1.513
887 4 107.304 69.451  0.629
888 4 106.055 69.451  1.512
889 5 129.790 68.561  0.000
890 5 129.790 70.341  0.000
891 5 130.680 69.451  1.259
892 5 128.541 68.561  2.141
893 5 128.541 70.341  2.141
894 5 127.292 70.341 -0.000
895 5 127.292 68.561 -0.000
896 5 126.043 68.561  2.141
897 5 126.043 70.341  2.141
898 5 124.793 70.341 -0.000
899 5 124.793 68.561 -0.000
900 5 123.544 68.561  2.142
901 5 123.544 70.341  2.142
902 5 122.295 70.341 -0.000
903 5 122.295 68.561 -0.000
904 5 121.046 68.561  2.142
905 5 121.046 70.341  2.142
906 5 119.796 70.341 -0.000
907 5 119.796 68.561 -0.000
908 5 118.547 68.561  2.142
909 5 118.547 70.341  2.142
910 5 117.298 70.341 -0.001
911 5 117.298 68.561 -0.001
912 5 116.049 68.561  2.142
913 5 116.049 70.341  2.142
914 5 114.799 70.341 -0.001
915 5 114.799 68.561 -0.001
916 5 113.550 68.561  2.142
917 5 113.550 70.341  2.142
918 5 112.301 70.341 -0.001
919 5 112.301 68.561 -0.001
920 5 111.052 68.561  2.142
921 5 111.052 70.341  2.142
922 5 109.802 70.341  0.000
923 5 109.802 68.561  0.000
924 5 108.553 68.561  2.142
925 5 108.553 70.341  2.142
926 5 107.304 70.341  0.000
927 5 107.304 68.561 -0.000
928 5 106.055 70.341  2.141
929 5 105.165 69.451  0.883
930 5 106.055 68.561  2.141
931 4 158.300 69.451  0.629
932 4 157.051 69.451  1.512
933 4 155.802 69.451  0.629
934 4 154.552 69.451  1.512
935 4 153.303 69.451  0.629
936 4 152.054 69.451  1.512
937 4 150.805 69.451  0.630
938 4 149.555 69.451  1.512
939 4 148.307 69.451  0.630
940 4 147.057 69.451  1.512
941 4 145.808 69.451  0.629
942 4 144.558 69.451  1.512
943 4 143.310 69.451  0.629
944 4 142.060 69.451  1.512
945 4 140.811 69.451  0.629
946 4 139.562 69.451  1.513
947 4 138.313 69.451  0.629
948 4 137.063 69.451  1.513
949 4 135.814 69.451  0.629
950 4 134.565 69.451  1.512
951 5 158.300 68.561  0.000
952 5 158.300 70.341  0.000
953 5 159.190 69.451  1.259
954 5 157.051 68.561  2.141
955 5 157.051 70.341  2.141
956 5 155.802 70.341 -0.000
957 5 155.802 68.561 -0.000
958 5 154.553 68.561  2.141
959 5 154.553 70.341  2.141
960 5 153.303 70.341 -0.000
961 5 153.303 68.561 -0.000
962 5 152.054 68.561  2.142
963 5 152.054 70.341  2.142
964 5 150.805 70.341 -0.000
965 5 150.805 68.561 -0.000
966 5 149.556 68.561  2.142
967 5 149.556 70.341  2.142
968 5 148.306 70.341 -0.000
969 5 148.306 68.561 -0.000
970 5 147.057 68.561  2.142
971 5 147.057 70.341  2.142
972 5 145.808 70.341 -0.001
973 5 145.808 68.561 -0.001
974 5 144.559 68.561  2.142
975 5 144.559 70.341  2.142
976 5 143.309 70.341 -0.001
977 5 143.309 68.561 -0.001
978 5 142.060 68.561  2.142
979 5 142.060 70.341  2.142
980 5 140.811 70.341 -0.001
981 5 140.811 68.561 -0.001
982 5 139.562 68.561  2.142
983 5 139.562 70.341  2.142
984 5 138.312 70.341  0.000
985 5 138.312 68.561  0.000
986 5 137.063 68.561  2.142
987 5 137.063 70.341  2.142
988 5 135.814 70.341  0.000
989 5 135.814 68.561 -0.000
990 5 134.565 70.341  2.141
991 5 133.675 69.451  0.883
992 5 134.565 68.561  2.141
993 4 186.810 69.451  0.629
994 4 185.561 69.451  1.512
995 4 184.312 69.451  0.629
996 4 183.062 69.451  1.512
997 4 181.813 69.451  0.629
998 4 180.564 69.451  1.512
999 4 179.315 69.451  0.630
1000 4 178.065 69.451  1.512
1001 4 176.817 69.451  0.630
1002 4 175.567 69.451  1.512
1003 4 174.318 69.451  0.629
1004 4 173.068 69.451  1.512
1005 4 171.820 69.451  0.629
1006 4 170.570 69.451  1.512
1007 4 169.321 69.451  0.629
1008 4 168.072 69.451  1.513
1009 4 166.823 69.451  0.629
1010 4 165.573 69.451  1.513
1011 4 164.324 69.451  0.629
1012 4 163.075 69.451  1.512
1013 5 186.810 68.561  0.000
1014 5 186.810 70.341  0.000
1015 5 187.700 69.451  1.259
1016 5 185.561 68.561  2.141
1017 5 185.561 70.341  2.141
1018 5 184.312 70.341 -0.000
1019 5 184.312 68.561 -0.000
1020 5 183.063 68.561  2.141
1021 5 183.063 70.341  2.141
1022 5 181.813 70.341 -0.000
1023 5 181.813 68.561 -0.000
1024 5 180.564 68.561  2.142
1025 5 180.564 70.341  2.142
1026 5 179.315 70.341 -0.000
1027 5 179.315 68.561 -0.000
1028 5 178.066 68.561  2.142
1029 5 178.066 70.341  2.142
1030 5 176.816 70.341 -0.000
1031 5 176.816 68.561 -0.000
1032 5 175.567 68.561  2.142
1033 5 175.567 70.341  2.142
1034 5 174.318 70.341 -0.001
1035 5 174.318 68.561 -0.001
1036 5 173.069 68.561  2.142
1037 5 173.069 70.341  2.142
1038 5 171.819 70.341 -0.001
1039 5 171.819 68.561 -0.001
1040 5 170.570 68.561  2.142
1041 5 170.570 70.341  2.142
1042 5 169.321 70.341 -0.001
1043 5 169.321 68.561 -0.001
1044 5 168.072 68.561  2.142
1045 5 168.072 70.341  2.142
1046 5 166.822 70.341  0.000
1047 5 166.822 68.561  0.000
1048 5 165.573 68.561  2.142
1049 5 165.573 70.341  2.142
1050 5 164.324 70.341  0.000
1051 5 164.324 68.561 -0.000
1052 5 163.075 70.341  2.141
1053 5 162.185 69.451  0.883
1054 5 163.075 68.561  2.141
1055 4 215.320 69.451  0.629
1056 4 214.071 69.451  1.512
1057 4 212.822 69.451  0.629
1058 4 211.572 69.451  1.512
1059 4 210.323 69.451  0.629
1060 4 209.074 69.451  1.512
1061 4 207.825 69.451  0.630
1062 4 206.575 69.451  1.512
1063 4 205.327 69.451  0.630
1064 4 204.077 69.451  1.512
1065 4 202.828 69.451  0.629
1066 4 201.578 69.451  1.512
1067 4 200.330 69.451  0.629
1068 4 199.080 69.451  1.512