# LAMMPS data file written by OVITO
62 atoms
5 atom types
0.0 25.5119992 xlo xhi
0.0 2.2679999 ylo yhi
0.0 2.1340001 zlo zhi

Atoms # atomic

1 4 24.6249237 1.1339999 0.6290271
2 4 23.3761635 1.1339998 1.5124836
3 4 22.1268768 1.1339999 0.6289116
4 4 20.8771192 1.1339998 1.5123739
5 4 19.6278324 1.1339999 0.6288023
6 4 18.3790741 1.1339998 1.5122586
7 4 17.1297932 1.1339999 0.629687
8 4 15.8800298 1.1339998 1.5121491
9 4 14.6317492 1.1339999 0.6295716
10 4 13.3819857 1.1339998 1.512034
11 4 12.1327047 1.1339999 0.6294622
12 4 10.8829404 1.1339998 1.5119245
13 4 9.6346598 1.1339999 0.6293468
14 4 8.3848953 1.1339998 1.5118091
15 4 7.1356154 1.1339999 0.6292374
16 4 5.886857 1.1339998 1.5126937
17 4 4.6375704 1.1339999 0.629122
18 4 3.3878126 1.1339998 1.5125845
19 4 2.1385253 1.1339999 0.6290127
20 4 0.8897678 1.1339998 1.5124688
21 5 24.6251755 0.244 1.4283694e-05
22 5 24.6251755 2.0239999 1.4283694e-05
23 5 25.5146885 1.1339998 1.2587366
24 5 23.3759117 0.2439999 2.1414959
25 5 23.3759117 2.0239997 2.1414959
26 5 22.1271305 2.0239999 -1.0097679e-04
27 5 22.1271305 0.244 -1.0097679e-04
28 5 20.8778668 0.2439999 2.1413803
29 5 20.8778668 2.0239997 2.1413803
30 5 19.6280842 2.0239999 -2.103662e-04
31 5 19.6280842 0.244 -2.103662e-04
32 5 18.3788281 0.2439999 2.142271
33 5 18.3788281 2.0239997 2.142271
34 5 17.1300392 2.0239999 -3.2572355e-04
35 5 17.1300392 0.244 -3.2572355e-04
36 5 15.8807832 0.2439999 2.1421559
37 5 15.8807832 2.0239997 2.1421559
38 5 14.6309948 2.0239999 -4.3512044e-04
39 5 14.6309948 0.244 -4.3512044e-04
40 5 13.3817396 0.2439999 2.1420465
41 5 13.3817396 2.0239997 2.1420465
42 5 12.1329508 2.0239999 -5.5058208e-04
43 5 12.1329508 0.244 -5.5058208e-04
44 5 10.8836938 0.2439999 2.1419311
45 5 10.8836938 2.0239997 2.1419311
46 5 9.6339054 2.0239999 -6.5997896e-04
47 5 9.6339054 0.244 -6.5997896e-04
48 5 8.3846483 0.2439999 2.1418216
49 5 8.3846483 2.0239997 2.1418216
50 5 7.1358614 2.0239999 -7.7533627e-04
51 5 7.1358614 0.244 -7.7533627e-04
52 5 5.8866054 0.2439999 2.1417065
53 5 5.8866054 2.0239997 2.1417065
54 5 4.6368218 2.0239999 1.1535548e-04
55 5 4.6368218 0.244 1.1535548e-04
56 5 3.3875597 0.2439999 2.141597
57 5 3.3875597 2.0239997 2.141597
58 5 2.1387768 2.0239999 3.9115548e-08
59 5 2.1387768 0.244 -3.9115548e-08
60 5 0.889516 2.0239997 2.1414814
61 5 -4.8849812e-15 1.1339999 0.8827596
62 5 0.889516 0.2439999 2.1414814
